version 2
run General-0-20210425-17:43:27-16292
attr configname General
attr datetime 20210425-17:43:27
attr experiment General
attr inifile omnetpp.ini
attr iterationvars ""
attr iterationvarsf ""
attr measurement ""
attr network Rede
attr processid 16292
attr repetition 0
attr replication #0
attr resultdir results
attr runnumber 0
attr seedset 0

vector 0 Rede.servidor tempoServico ETV
vector 1 Rede.servidor fila ETV
0	82	0.3	0.326
0	133	0.626	0.368
0	143	0.994	0.515
0	162	1.509	0.762
0	184	2.271	0.379
0	197	2.65	0.8
0	222	3.45	0.323
0	232	3.773	0.77
0	257	4.543	0.226
0	264	4.769	0.401
0	277	5.17	0.426
0	290	5.596	0.199
0	297	5.795	0.236
0	307	6.031	0.145
0	311	6.176	0.912
0	339	7.088	0.024
0	343	7.112	1.359
0	383	8.471	0.131
0	390	8.602	0.198
0	394	8.8	0.266
0	404	9.066	0.643
0	426	9.709	0.686
0	445	10.395	0.309
0	458	10.704	0.268
0	465	10.972	0.344
0	478	11.316	0.205
0	485	11.521	1.065
0	516	12.586	0.741
0	541	13.327	0.03
0	542	13.357	0.169
0	549	13.526	0.037
0	550	13.563	0.428
0	563	13.991	0.008
0	564	13.999	0.188
0	571	14.187	0.733
0	596	14.92	1.292
0	636	16.212	0.617
0	655	16.829	0.062
0	656	16.891	0.837
0	684	17.728	0.837
0	709	18.565	1.577
0	758	20.142	0.263
0	763	20.405	0.658
0	764	21.063	0.662
0	765	21.725	0.254
0	766	21.979	0.301
0	767	22.28	0.622
0	768	22.902	0.466
0	769	23.368	0.052
0	770	23.42	0.523
0	771	23.943	0.419
0	772	24.362	0.358
0	773	24.72	0.063
0	774	24.783	0.316
0	775	25.099	1.187
0	776	26.286	0.583
0	777	26.869	0.303
0	778	27.172	0.046
0	779	27.218	0.22
0	780	27.438	0.263
0	781	27.701	0.126
0	782	27.827	0.085
0	783	27.912	0.61
0	784	28.522	0.547
0	785	29.069	0.25
0	786	29.319	0.1
0	787	29.419	0.345
0	788	29.764	0.06
0	789	29.824	0.008
0	790	29.832	0.161
0	791	29.993	0.394
0	792	30.387	0.066
0	793	30.453	0.388
0	794	30.841	0.103
0	795	30.944	0.393
0	796	31.337	0.2
0	797	31.537	1.18
0	798	32.717	0.955
0	799	33.672	0.47
0	800	34.142	0.245
0	801	34.387	0.183
0	802	34.57	0.389
0	803	34.959	0.236
0	804	35.195	0.954
0	805	36.149	0.49
0	806	36.639	0.043
0	807	36.682	0.025
0	808	36.707	1.435
0	809	38.142	0.451
0	810	38.593	0.434
0	811	39.027	0.455
0	812	39.482	0.077
0	813	39.559	0.097
0	814	39.656	0.182
0	815	39.838	0.057
0	816	39.895	0.57
0	817	40.465	0.155
0	818	40.62	0.384
0	819	41.004	0.185
0	820	41.189	0.161
0	821	41.35	0.346
0	822	41.696	0.016
0	823	41.712	0.237
0	824	41.949	0.412
0	825	42.361	1.826
0	826	44.187	1.309
0	827	45.496	0.044
0	828	45.54	0.434
0	829	45.974	0.096
0	830	46.07	0.413
0	831	46.483	0.072
0	832	46.555	2.198
0	833	48.753	0.434
0	834	49.187	0.357
0	835	49.544	0.12
0	836	49.664	0.219
0	837	49.883	0.257
0	838	50.14	0.264
0	839	50.404	0.115
0	840	50.519	0.401
0	841	50.92	0.071
0	842	50.991	0.169
0	843	51.16	0.048
0	844	51.208	0.46
0	845	51.668	0.438
0	846	52.106	0.156
0	847	52.262	0.061
0	848	52.323	0.618
0	849	52.941	0.09
0	850	53.031	1.225
0	851	54.256	0.189
0	852	54.445	0.445
0	853	54.89	0.705
0	854	55.595	0.006
0	855	55.601	0.042
0	856	55.643	0.4
0	857	56.043	0.746
0	858	56.789	0.459
0	859	57.248	0.041
0	860	57.289	1.465
0	861	58.754	1.537
0	862	60.291	0.863
0	863	61.154	0.259
0	864	61.413	0.292
0	865	61.705	1.542
0	866	63.247	0.024
0	867	63.271	0.381
0	868	63.652	0.246
0	869	63.898	0.551
0	870	64.449	0.008
0	871	64.457	0.016
0	872	64.473	0.239
0	873	64.712	0.136
0	874	64.848	1.596
0	875	66.444	0.053
0	876	66.497	0.183
0	877	66.68	0.144
0	878	66.824	0.269
0	879	67.093	0.052
0	880	67.145	0.478
0	881	67.623	0.157
0	882	67.78	0.871
0	883	68.651	0.219
0	884	68.87	1.027
0	885	69.897	0.027
0	886	69.924	0.1
0	887	70.024	0.483
0	888	70.507	0.341
0	889	70.848	0.343
0	890	71.191	0.821
0	891	72.012	0.126
0	892	72.138	0.292
0	893	72.43	0.304
0	894	72.734	1.019
0	895	73.753	0.04
0	896	73.793	1.042
0	897	74.835	0.352
0	898	75.187	0.036
0	899	75.223	1.086
0	900	76.309	0.133
0	901	76.442	0.157
0	902	76.599	0.004
0	903	76.603	0.451
0	904	77.054	0.757
0	905	77.811	0.058
0	906	77.869	0.427
0	907	78.296	0.517
0	908	78.813	0.755
0	909	79.568	0.14
0	910	79.708	0.126
0	911	79.834	0.083
0	912	79.917	0.208
0	913	80.125	0.362
0	914	80.487	0.33
0	915	80.817	0.008
0	916	80.825	0.074
0	917	80.899	0.724
0	918	81.623	0.189
0	919	81.812	0.002
0	920	81.814	0.065
0	921	81.879	0.464
0	922	82.343	0.346
0	923	82.689	0.129
0	924	82.818	0.499
0	925	83.317	0.545
0	926	83.862	0.14
0	927	84.002	1.343
0	928	85.345	0.233
0	929	85.578	0.117
0	930	85.695	0.579
0	931	86.274	0.352
0	932	86.626	0.207
0	933	86.833	0.368
0	934	87.201	0.928
0	935	88.129	0.348
0	936	88.477	0.418
0	937	88.895	0.103
0	938	88.998	0.911
0	939	89.909	1.251
0	940	91.16	0.467
0	941	91.627	0.243
0	942	91.87	0.245
0	943	92.115	0.768
0	944	92.883	1.576
0	945	94.459	0.493
0	946	94.952	0.051
0	947	95.003	0.145
0	948	95.148	0.597
0	949	95.745	0.689
0	950	96.434	0.218
0	951	96.652	0.207
0	952	96.859	0.461
0	953	97.32	0.873
0	954	98.193	0.118
0	955	98.311	0.357
0	956	98.668	0.154
0	957	98.822	0.875
0	958	99.697	1.379
0	959	101.076	0.484
0	960	101.56	0.364
1	82	0.3	0
1	83	0.3	1
1	84	0.3	2
1	85	0.3	3
1	86	0.3	4
1	87	0.3	5
1	88	0.3	6
1	89	0.3	7
1	90	0.3	8
1	91	0.3	9
1	92	0.3	10
1	93	0.3	11
1	94	0.3	12
1	95	0.3	13
1	96	0.3	14
1	97	0.3	15
1	98	0.3	16
1	99	0.3	17
1	100	0.3	18
1	101	0.3	19
1	102	0.3	20
1	103	0.3	21
1	104	0.3	22
1	105	0.3	23
1	106	0.3	24
1	107	0.3	25
1	108	0.3	26
1	109	0.3	27
1	110	0.3	28
1	111	0.3	29
1	112	0.3	30
1	113	0.3	31
1	114	0.3	32
1	115	0.3	33
1	116	0.3	34
1	117	0.3	35
1	118	0.3	36
1	119	0.3	37
1	120	0.3	38
1	123	0.3	39
1	126	0.4	40
1	129	0.5	41
1	132	0.6	42
1	133	0.626	41
1	136	0.7	42
1	139	0.8	43
1	142	0.9	44
1	143	0.994	43
1	146	1	44
1	149	1.1	45
1	152	1.2	46
1	155	1.3	47
1	158	1.4	48
1	161	1.5	49
1	162	1.509	48
1	165	1.6	49
1	168	1.7	50
1	171	1.8	51
1	174	1.9	52
1	177	2	53
1	180	2.1	54
1	183	2.2	55
1	184	2.271	54
1	187	2.3	55
1	190	2.4	56
1	193	2.5	57
1	196	2.6	58
1	197	2.65	57
1	200	2.7	58
1	203	2.8	59
1	206	2.9	60
1	209	3	61
1	212	3.1	62
1	215	3.2	63
1	218	3.3	64
1	221	3.4	65
1	222	3.45	64
1	225	3.5	65
1	228	3.6	66
1	231	3.7	67
1	232	3.773	66
1	235	3.8	67
1	238	3.9	68
1	241	4	69
1	244	4.1	70
1	247	4.2	71
1	250	4.3	72
1	253	4.4	73
1	256	4.5	74
1	257	4.543	73
1	260	4.6	74
1	263	4.7	75
1	264	4.769	74
1	267	4.8	75
1	270	4.9	76
1	273	5	77
1	276	5.1	78
1	277	5.17	77
1	280	5.2	78
1	283	5.3	79
1	286	5.4	80
1	289	5.5	81
1	290	5.596	80
1	293	5.6	81
1	296	5.7	82
1	297	5.795	81
1	300	5.8	82
1	303	5.9	83
1	306	6	84
1	307	6.031	83
1	310	6.1	84
1	311	6.176	83
1	314	6.2	84
1	317	6.3	85
1	320	6.4	86
1	323	6.5	87
1	326	6.6	88
1	329	6.7	89
1	332	6.8	90
1	335	6.9	91
1	338	7	92
1	339	7.088	91
1	342	7.1	92
1	343	7.112	91
1	346	7.2	92
1	349	7.3	93
1	352	7.4	94
1	355	7.5	95
1	358	7.6	96
1	361	7.7	97
1	364	7.8	98
1	367	7.9	99
1	370	8	100
1	373	8.1	101
1	376	8.2	102
1	379	8.3	103
1	382	8.4	104
1	383	8.471	103
1	386	8.5	104
1	389	8.6	105
1	390	8.602	104
1	393	8.7	105
1	394	8.8	104
1	397	8.8	105
1	400	8.9	106
1	403	9	107
1	404	9.066	106
1	407	9.1	107
1	410	9.2	108
1	413	9.3	109
1	416	9.4	110
1	419	9.5	111
1	422	9.6	112
1	425	9.7	113
1	426	9.709	112
1	429	9.8	113
1	432	9.9	114
1	435	10	115
1	438	10.1	116
1	441	10.2	117
1	444	10.3	118
1	445	10.395	117
1	448	10.4	118
1	451	10.5	119
1	454	10.6	120
1	457	10.7	121
1	458	10.704	120
1	461	10.8	121
1	464	10.9	122
1	465	10.972	121
1	468	11	122
1	471	11.1	123
1	474	11.2	124
1	477	11.3	125
1	478	11.316	124
1	481	11.4	125
1	484	11.5	126
1	485	11.521	125
1	488	11.6	126
1	491	11.7	127
1	494	11.8	128
1	497	11.9	129
1	500	12	130
1	503	12.1	131
1	506	12.2	132
1	509	12.3	133
1	512	12.4	134
1	515	12.5	135
1	516	12.586	134
1	519	12.6	135
1	522	12.7	136
1	525	12.8	137
1	528	12.9	138
1	531	13	139
1	534	13.1	140
1	537	13.2	141
1	540	13.3	142
1	541	13.327	141
1	542	13.357	140
1	545	13.4	141
1	548	13.5	142
1	549	13.526	141
1	550	13.563	140
1	553	13.6	141
1	556	13.7	142
1	559	13.8	143
1	562	13.9	144
1	563	13.991	143
1	564	13.999	142
1	567	14	143
1	570	14.1	144
1	571	14.187	143
1	574	14.2	144
1	577	14.3	145
1	580	14.4	146
1	583	14.5	147
1	586	14.6	148
1	589	14.7	149
1	592	14.8	150
1	595	14.9	151
1	596	14.92	150
1	599	15	151
1	602	15.1	152
1	605	15.2	153
1	608	15.3	154
1	611	15.4	155
1	614	15.5	156
1	617	15.6	157
1	620	15.7	158
1	623	15.8	159
1	626	15.9	160
1	629	16	161
1	632	16.1	162
1	635	16.2	163
1	636	16.212	162
1	639	16.3	163
1	642	16.4	164
1	645	16.5	165
1	648	16.6	166
1	651	16.7	167
1	654	16.8	168
1	655	16.829	167
1	656	16.891	166
1	659	16.9	167
1	662	17	168
1	665	17.1	169
1	668	17.2	170
1	671	17.3	171
1	674	17.4	172
1	677	17.5	173
1	680	17.6	174
1	683	17.7	175
1	684	17.728	174
1	687	17.8	175
1	690	17.9	176
1	693	18	177
1	696	18.1	178
1	699	18.2	179
1	702	18.3	180
1	705	18.4	181
1	708	18.5	182
1	709	18.565	181
1	712	18.6	182
1	715	18.7	183
1	718	18.8	184
1	721	18.9	185
1	724	19	186
1	727	19.1	187
1	730	19.2	188
1	733	19.3	189
1	736	19.4	190
1	739	19.5	191
1	742	19.6	192
1	745	19.7	193
1	748	19.8	194
1	751	19.9	195
1	754	20	196
1	757	20.1	197
1	758	20.142	196
1	761	20.2	197
1	762	20.3	198
1	763	20.405	197
1	764	21.063	196
1	765	21.725	195
1	766	21.979	194
1	767	22.28	193
1	768	22.902	192
1	769	23.368	191
1	770	23.42	190
1	771	23.943	189
1	772	24.362	188
1	773	24.72	187
1	774	24.783	186
1	775	25.099	185
1	776	26.286	184
1	777	26.869	183
1	778	27.172	182
1	779	27.218	181
1	780	27.438	180
1	781	27.701	179
1	782	27.827	178
1	783	27.912	177
1	784	28.522	176
1	785	29.069	175
1	786	29.319	174
1	787	29.419	173
1	788	29.764	172
1	789	29.824	171
1	790	29.832	170
1	791	29.993	169
1	792	30.387	168
1	793	30.453	167
1	794	30.841	166
1	795	30.944	165
1	796	31.337	164
1	797	31.537	163
1	798	32.717	162
1	799	33.672	161
1	800	34.142	160
1	801	34.387	159
1	802	34.57	158
1	803	34.959	157
1	804	35.195	156
1	805	36.149	155
1	806	36.639	154
1	807	36.682	153
1	808	36.707	152
1	809	38.142	151
1	810	38.593	150
1	811	39.027	149
1	812	39.482	148
1	813	39.559	147
1	814	39.656	146
1	815	39.838	145
1	816	39.895	144
1	817	40.465	143
1	818	40.62	142
1	819	41.004	141
1	820	41.189	140
1	821	41.35	139
1	822	41.696	138
1	823	41.712	137
1	824	41.949	136
1	825	42.361	135
1	826	44.187	134
1	827	45.496	133
1	828	45.54	132
1	829	45.974	131
1	830	46.07	130
1	831	46.483	129
1	832	46.555	128
1	833	48.753	127
1	834	49.187	126
1	835	49.544	125
1	836	49.664	124
1	837	49.883	123
1	838	50.14	122
1	839	50.404	121
1	840	50.519	120
1	841	50.92	119
1	842	50.991	118
1	843	51.16	117
1	844	51.208	116
1	845	51.668	115
1	846	52.106	114
1	847	52.262	113
1	848	52.323	112
1	849	52.941	111
1	850	53.031	110
1	851	54.256	109
1	852	54.445	108
1	853	54.89	107
1	854	55.595	106
1	855	55.601	105
1	856	55.643	104
1	857	56.043	103
1	858	56.789	102
1	859	57.248	101
1	860	57.289	100
1	861	58.754	99
1	862	60.291	98
1	863	61.154	97
1	864	61.413	96
1	865	61.705	95
1	866	63.247	94
1	867	63.271	93
1	868	63.652	92
1	869	63.898	91
1	870	64.449	90
1	871	64.457	89
1	872	64.473	88
1	873	64.712	87
1	874	64.848	86
1	875	66.444	85
1	876	66.497	84
1	877	66.68	83
1	878	66.824	82
1	879	67.093	81
1	880	67.145	80
1	881	67.623	79
1	882	67.78	78
1	883	68.651	77
1	884	68.87	76
1	885	69.897	75
1	886	69.924	74
1	887	70.024	73
1	888	70.507	72
1	889	70.848	71
1	890	71.191	70
1	891	72.012	69
1	892	72.138	68
1	893	72.43	67
1	894	72.734	66
1	895	73.753	65
1	896	73.793	64
1	897	74.835	63
1	898	75.187	62
1	899	75.223	61
1	900	76.309	60
1	901	76.442	59
1	902	76.599	58
1	903	76.603	57
1	904	77.054	56
1	905	77.811	55
1	906	77.869	54
1	907	78.296	53
1	908	78.813	52
1	909	79.568	51
1	910	79.708	50
1	911	79.834	49
1	912	79.917	48
1	913	80.125	47
1	914	80.487	46
1	915	80.817	45
1	916	80.825	44
1	917	80.899	43
1	918	81.623	42
1	919	81.812	41
1	920	81.814	40
1	921	81.879	39
1	922	82.343	38
1	923	82.689	37
1	924	82.818	36
1	925	83.317	35
1	926	83.862	34
1	927	84.002	33
1	928	85.345	32
1	929	85.578	31
1	930	85.695	30
1	931	86.274	29
1	932	86.626	28
1	933	86.833	27
1	934	87.201	26
1	935	88.129	25
1	936	88.477	24
1	937	88.895	23
1	938	88.998	22
1	939	89.909	21
1	940	91.16	20
1	941	91.627	19
1	942	91.87	18
1	943	92.115	17
1	944	92.883	16
1	945	94.459	15
1	946	94.952	14
1	947	95.003	13
1	948	95.148	12
1	949	95.745	11
1	950	96.434	10
1	951	96.652	9
1	952	96.859	8
1	953	97.32	7
1	954	98.193	6
1	955	98.311	5
1	956	98.668	4
1	957	98.822	3
1	958	99.697	2
1	959	101.076	1
1	960	101.56	0
1	961	101.924	0

